+ 0.2 0 2 ping 64 ------- 0 0.1 4.2 -1 0
- 0.2 0 2 ping 64 ------- 0 0.1 4.2 -1 0
r 0.210256 0 2 ping 64 ------- 0 0.1 4.2 -1 0
+ 0.210256 2 3 ping 64 ------- 0 0.1 4.2 -1 0
- 0.210256 2 3 ping 64 ------- 0 0.1 4.2 -1 0
+ 0.3 4 3 ping 64 ------- 0 4.2 0.1 -1 1
- 0.3 4 3 ping 64 ------- 0 4.2 0.1 -1 1
r 0.341024 4 3 ping 64 ------- 0 4.2 0.1 -1 1
+ 0.341024 3 2 ping 64 ------- 0 4.2 0.1 -1 1
- 0.341024 3 2 ping 64 ------- 0 4.2 0.1 -1 1
r 0.411963 2 3 ping 64 ------- 0 0.1 4.2 -1 0
+ 0.411963 3 4 ping 64 ------- 0 0.1 4.2 -1 0
- 0.411963 3 4 ping 64 ------- 0 0.1 4.2 -1 0
r 0.452987 3 4 ping 64 ------- 0 0.1 4.2 -1 0
+ 0.452987 4 3 ping 64 ------- 0 4.2 0.1 -1 2
- 0.452987 4 3 ping 64 ------- 0 4.2 0.1 -1 2
r 0.494011 4 3 ping 64 ------- 0 4.2 0.1 -1 2
+ 0.494011 3 2 ping 64 ------- 0 4.2 0.1 -1 2
- 0.494011 3 2 ping 64 ------- 0 4.2 0.1 -1 2
+ 0.5 0 2 tcp 40 ------- 1 0.0 4.0 0 3
- 0.5 0 2 tcp 40 ------- 1 0.0 4.0 0 3
r 0.51016 0 2 tcp 40 ------- 1 0.0 4.0 0 3
+ 0.51016 2 3 tcp 40 ------- 1 0.0 4.0 0 3
- 0.51016 2 3 tcp 40 ------- 1 0.0 4.0 0 3
r 0.542731 3 2 ping 64 ------- 0 4.2 0.1 -1 1
+ 0.542731 2 0 ping 64 ------- 0 4.2 0.1 -1 1
- 0.542731 2 0 ping 64 ------- 0 4.2 0.1 -1 1
r 0.552987 2 0 ping 64 ------- 0 4.2 0.1 -1 1
+ 0.552987 0 2 ping 64 ------- 0 0.1 4.2 -1 4
- 0.552987 0 2 ping 64 ------- 0 0.1 4.2 -1 4
r 0.563243 0 2 ping 64 ------- 0 0.1 4.2 -1 4
+ 0.563243 2 3 ping 64 ------- 0 0.1 4.2 -1 4
- 0.563243 2 3 ping 64 ------- 0 0.1 4.2 -1 4
+ 0.6 1 2 tcp 40 ------- 2 1.0 5.0 0 5
- 0.6 1 2 tcp 40 ------- 2 1.0 5.0 0 5
r 0.61016 1 2 tcp 40 ------- 2 1.0 5.0 0 5
+ 0.61016 2 3 tcp 40 ------- 2 1.0 5.0 0 5
- 0.61016 2 3 tcp 40 ------- 2 1.0 5.0 0 5
r 0.695717 3 2 ping 64 ------- 0 4.2 0.1 -1 2
+ 0.695717 2 0 ping 64 ------- 0 4.2 0.1 -1 2
- 0.695717 2 0 ping 64 ------- 0 4.2 0.1 -1 2
+ 0.7 2 3 tcp 40 ------- 3 2.0 3.0 0 6
- 0.7 2 3 tcp 40 ------- 3 2.0 3.0 0 6
r 0.705973 2 0 ping 64 ------- 0 4.2 0.1 -1 2
r 0.711227 2 3 tcp 40 ------- 1 0.0 4.0 0 3
+ 0.711227 3 4 tcp 40 ------- 1 0.0 4.0 0 3
- 0.711227 3 4 tcp 40 ------- 1 0.0 4.0 0 3
r 0.751867 3 4 tcp 40 ------- 1 0.0 4.0 0 3
+ 0.751867 4 3 ack 40 ------- 1 4.0 0.0 0 7
- 0.751867 4 3 ack 40 ------- 1 4.0 0.0 0 7
r 0.764949 2 3 ping 64 ------- 0 0.1 4.2 -1 4
+ 0.764949 3 4 ping 64 ------- 0 0.1 4.2 -1 4
- 0.764949 3 4 ping 64 ------- 0 0.1 4.2 -1 4
r 0.792507 4 3 ack 40 ------- 1 4.0 0.0 0 7
+ 0.792507 3 2 ack 40 ------- 1 4.0 0.0 0 7
- 0.792507 3 2 ack 40 ------- 1 4.0 0.0 0 7
+ 0.8 1 2 tcp 40 ------- 4 1.1 4.1 0 8
- 0.8 1 2 tcp 40 ------- 4 1.1 4.1 0 8
r 0.805973 3 4 ping 64 ------- 0 0.1 4.2 -1 4
r 0.81016 1 2 tcp 40 ------- 4 1.1 4.1 0 8
+ 0.81016 2 3 tcp 40 ------- 4 1.1 4.1 0 8
- 0.81016 2 3 tcp 40 ------- 4 1.1 4.1 0 8
r 0.811227 2 3 tcp 40 ------- 2 1.0 5.0 0 5
+ 0.811227 3 5 tcp 40 ------- 2 1.0 5.0 0 5
- 0.811227 3 5 tcp 40 ------- 2 1.0 5.0 0 5
r 0.841867 3 5 tcp 40 ------- 2 1.0 5.0 0 5
+ 0.841867 5 3 ack 40 ------- 2 5.0 1.0 0 9
- 0.841867 5 3 ack 40 ------- 2 5.0 1.0 0 9
r 0.872507 5 3 ack 40 ------- 2 5.0 1.0 0 9
+ 0.872507 3 2 ack 40 ------- 2 5.0 1.0 0 9
- 0.872507 3 2 ack 40 ------- 2 5.0 1.0 0 9
r 0.901067 2 3 tcp 40 ------- 3 2.0 3.0 0 6
+ 0.901067 3 2 ack 40 ------- 3 3.0 2.0 0 10
- 0.901067 3 2 ack 40 ------- 3 3.0 2.0 0 10
r 0.993573 3 2 ack 40 ------- 1 4.0 0.0 0 7
+ 0.993573 2 0 ack 40 ------- 1 4.0 0.0 0 7
- 0.993573 2 0 ack 40 ------- 1 4.0 0.0 0 7
r 1.003733 2 0 ack 40 ------- 1 4.0 0.0 0 7
+ 1.003733 0 2 tcp 1040 ------- 1 0.0 4.0 1 11
- 1.003733 0 2 tcp 1040 ------- 1 0.0 4.0 1 11
+ 1.003733 0 2 tcp 1040 ------- 1 0.0 4.0 2 12
- 1.007893 0 2 tcp 1040 ------- 1 0.0 4.0 2 12
r 1.011227 2 3 tcp 40 ------- 4 1.1 4.1 0 8
+ 1.011227 3 4 tcp 40 ------- 4 1.1 4.1 0 8
- 1.011227 3 4 tcp 40 ------- 4 1.1 4.1 0 8
r 1.017893 0 2 tcp 1040 ------- 1 0.0 4.0 1 11
+ 1.017893 2 3 tcp 1040 ------- 1 0.0 4.0 1 11
- 1.017893 2 3 tcp 1040 ------- 1 0.0 4.0 1 11
r 1.022053 0 2 tcp 1040 ------- 1 0.0 4.0 2 12
+ 1.022053 2 3 tcp 1040 ------- 1 0.0 4.0 2 12
- 1.045627 2 3 tcp 1040 ------- 1 0.0 4.0 2 12
r 1.051867 3 4 tcp 40 ------- 4 1.1 4.1 0 8
+ 1.051867 4 3 ack 40 ------- 4 4.1 1.1 0 13
- 1.051867 4 3 ack 40 ------- 4 4.1 1.1 0 13
r 1.073573 3 2 ack 40 ------- 2 5.0 1.0 0 9
+ 1.073573 2 1 ack 40 ------- 2 5.0 1.0 0 9
- 1.073573 2 1 ack 40 ------- 2 5.0 1.0 0 9
r 1.083733 2 1 ack 40 ------- 2 5.0 1.0 0 9
+ 1.083733 1 2 tcp 1040 ------- 2 1.0 5.0 1 14
- 1.083733 1 2 tcp 1040 ------- 2 1.0 5.0 1 14
+ 1.083733 1 2 tcp 1040 ------- 2 1.0 5.0 2 15
- 1.087893 1 2 tcp 1040 ------- 2 1.0 5.0 2 15
r 1.092507 4 3 ack 40 ------- 4 4.1 1.1 0 13
+ 1.092507 3 2 ack 40 ------- 4 4.1 1.1 0 13
- 1.092507 3 2 ack 40 ------- 4 4.1 1.1 0 13
r 1.097893 1 2 tcp 1040 ------- 2 1.0 5.0 1 14
+ 1.097893 2 3 tcp 1040 ------- 2 1.0 5.0 1 14
- 1.097893 2 3 tcp 1040 ------- 2 1.0 5.0 1 14
r 1.102053 1 2 tcp 1040 ------- 2 1.0 5.0 2 15
+ 1.102053 2 3 tcp 1040 ------- 2 1.0 5.0 2 15
r 1.102133 3 2 ack 40 ------- 3 3.0 2.0 0 10
+ 1.102133 2 3 tcp 1040 ------- 3 2.0 3.0 1 16
+ 1.102133 2 3 tcp 1040 ------- 3 2.0 3.0 2 17
- 1.125627 2 3 tcp 1040 ------- 2 1.0 5.0 2 15
- 1.15336 2 3 tcp 1040 ------- 3 2.0 3.0 1 16
- 1.181093 2 3 tcp 1040 ------- 3 2.0 3.0 2 17
r 1.245627 2 3 tcp 1040 ------- 1 0.0 4.0 1 11
+ 1.245627 3 4 tcp 1040 ------- 1 0.0 4.0 1 11
- 1.245627 3 4 tcp 1040 ------- 1 0.0 4.0 1 11
r 1.27336 2 3 tcp 1040 ------- 1 0.0 4.0 2 12
+ 1.27336 3 4 tcp 1040 ------- 1 0.0 4.0 2 12
- 1.27336 3 4 tcp 1040 ------- 1 0.0 4.0 2 12
r 1.293573 3 2 ack 40 ------- 4 4.1 1.1 0 13
+ 1.293573 2 1 ack 40 ------- 4 4.1 1.1 0 13
- 1.293573 2 1 ack 40 ------- 4 4.1 1.1 0 13
r 1.302267 3 4 tcp 1040 ------- 1 0.0 4.0 1 11
+ 1.302267 4 3 ack 40 ------- 1 4.0 0.0 1 18
- 1.302267 4 3 ack 40 ------- 1 4.0 0.0 1 18
r 1.303733 2 1 ack 40 ------- 4 4.1 1.1 0 13
+ 1.303733 1 2 tcp 1040 ------- 4 1.1 4.1 1 19
- 1.303733 1 2 tcp 1040 ------- 4 1.1 4.1 1 19
+ 1.303733 1 2 tcp 1040 ------- 4 1.1 4.1 2 20
- 1.307893 1 2 tcp 1040 ------- 4 1.1 4.1 2 20
r 1.317893 1 2 tcp 1040 ------- 4 1.1 4.1 1 19
+ 1.317893 2 3 tcp 1040 ------- 4 1.1 4.1 1 19
- 1.317893 2 3 tcp 1040 ------- 4 1.1 4.1 1 19
r 1.322053 1 2 tcp 1040 ------- 4 1.1 4.1 2 20
+ 1.322053 2 3 tcp 1040 ------- 4 1.1 4.1 2 20
r 1.325627 2 3 tcp 1040 ------- 2 1.0 5.0 1 14
+ 1.325627 3 5 tcp 1040 ------- 2 1.0 5.0 1 14
- 1.325627 3 5 tcp 1040 ------- 2 1.0 5.0 1 14
r 1.33 3 4 tcp 1040 ------- 1 0.0 4.0 2 12
+ 1.33 4 3 ack 40 ------- 1 4.0 0.0 2 21
- 1.33 4 3 ack 40 ------- 1 4.0 0.0 2 21
r 1.342907 4 3 ack 40 ------- 1 4.0 0.0 1 18
+ 1.342907 3 2 ack 40 ------- 1 4.0 0.0 1 18
- 1.342907 3 2 ack 40 ------- 1 4.0 0.0 1 18
- 1.345627 2 3 tcp 1040 ------- 4 1.1 4.1 2 20
r 1.35336 2 3 tcp 1040 ------- 2 1.0 5.0 2 15
+ 1.35336 3 5 tcp 1040 ------- 2 1.0 5.0 2 15
- 1.35336 3 5 tcp 1040 ------- 2 1.0 5.0 2 15
r 1.37064 4 3 ack 40 ------- 1 4.0 0.0 2 21
+ 1.37064 3 2 ack 40 ------- 1 4.0 0.0 2 21
- 1.37064 3 2 ack 40 ------- 1 4.0 0.0 2 21
r 1.372267 3 5 tcp 1040 ------- 2 1.0 5.0 1 14
+ 1.372267 5 3 ack 40 ------- 2 5.0 1.0 1 22
- 1.372267 5 3 ack 40 ------- 2 5.0 1.0 1 22
r 1.381093 2 3 tcp 1040 ------- 3 2.0 3.0 1 16
+ 1.381093 3 2 ack 40 ------- 3 3.0 2.0 1 23
- 1.381093 3 2 ack 40 ------- 3 3.0 2.0 1 23
r 1.4 3 5 tcp 1040 ------- 2 1.0 5.0 2 15
+ 1.4 5 3 ack 40 ------- 2 5.0 1.0 2 24
- 1.4 5 3 ack 40 ------- 2 5.0 1.0 2 24
r 1.402907 5 3 ack 40 ------- 2 5.0 1.0 1 22
+ 1.402907 3 2 ack 40 ------- 2 5.0 1.0 1 22
- 1.402907 3 2 ack 40 ------- 2 5.0 1.0 1 22
r 1.408827 2 3 tcp 1040 ------- 3 2.0 3.0 2 17
+ 1.408827 3 2 ack 40 ------- 3 3.0 2.0 2 25
- 1.408827 3 2 ack 40 ------- 3 3.0 2.0 2 25
r 1.43064 5 3 ack 40 ------- 2 5.0 1.0 2 24
+ 1.43064 3 2 ack 40 ------- 2 5.0 1.0 2 24
- 1.43064 3 2 ack 40 ------- 2 5.0 1.0 2 24
r 1.543973 3 2 ack 40 ------- 1 4.0 0.0 1 18
+ 1.543973 2 0 ack 40 ------- 1 4.0 0.0 1 18
- 1.543973 2 0 ack 40 ------- 1 4.0 0.0 1 18
r 1.545627 2 3 tcp 1040 ------- 4 1.1 4.1 1 19
+ 1.545627 3 4 tcp 1040 ------- 4 1.1 4.1 1 19
- 1.545627 3 4 tcp 1040 ------- 4 1.1 4.1 1 19
r 1.554133 2 0 ack 40 ------- 1 4.0 0.0 1 18
+ 1.554133 0 2 tcp 1040 ------- 1 0.0 4.0 3 26
- 1.554133 0 2 tcp 1040 ------- 1 0.0 4.0 3 26
+ 1.554133 0 2 tcp 1040 ------- 1 0.0 4.0 4 27
- 1.558293 0 2 tcp 1040 ------- 1 0.0 4.0 4 27
r 1.568293 0 2 tcp 1040 ------- 1 0.0 4.0 3 26
+ 1.568293 2 3 tcp 1040 ------- 1 0.0 4.0 3 26
- 1.568293 2 3 tcp 1040 ------- 1 0.0 4.0 3 26
r 1.571707 3 2 ack 40 ------- 1 4.0 0.0 2 21
+ 1.571707 2 0 ack 40 ------- 1 4.0 0.0 2 21
- 1.571707 2 0 ack 40 ------- 1 4.0 0.0 2 21
r 1.572453 0 2 tcp 1040 ------- 1 0.0 4.0 4 27
+ 1.572453 2 3 tcp 1040 ------- 1 0.0 4.0 4 27
r 1.57336 2 3 tcp 1040 ------- 4 1.1 4.1 2 20
+ 1.57336 3 4 tcp 1040 ------- 4 1.1 4.1 2 20
- 1.57336 3 4 tcp 1040 ------- 4 1.1 4.1 2 20
r 1.581867 2 0 ack 40 ------- 1 4.0 0.0 2 21
+ 1.581867 0 2 tcp 1040 ------- 1 0.0 4.0 5 28
- 1.581867 0 2 tcp 1040 ------- 1 0.0 4.0 5 28
+ 1.581867 0 2 tcp 1040 ------- 1 0.0 4.0 6 29
r 1.58216 3 2 ack 40 ------- 3 3.0 2.0 1 23
+ 1.58216 2 3 tcp 1040 ------- 3 2.0 3.0 3 30
+ 1.58216 2 3 tcp 1040 ------- 3 2.0 3.0 4 31
- 1.586027 0 2 tcp 1040 ------- 1 0.0 4.0 6 29
- 1.596027 2 3 tcp 1040 ------- 1 0.0 4.0 4 27
r 1.596027 0 2 tcp 1040 ------- 1 0.0 4.0 5 28
+ 1.596027 2 3 tcp 1040 ------- 1 0.0 4.0 5 28
r 1.600187 0 2 tcp 1040 ------- 1 0.0 4.0 6 29
+ 1.600187 2 3 tcp 1040 ------- 1 0.0 4.0 6 29
r 1.602267 3 4 tcp 1040 ------- 4 1.1 4.1 1 19
+ 1.602267 4 3 ack 40 ------- 4 4.1 1.1 1 32
- 1.602267 4 3 ack 40 ------- 4 4.1 1.1 1 32
r 1.603973 3 2 ack 40 ------- 2 5.0 1.0 1 22
+ 1.603973 2 1 ack 40 ------- 2 5.0 1.0 1 22
- 1.603973 2 1 ack 40 ------- 2 5.0 1.0 1 22
r 1.609893 3 2 ack 40 ------- 3 3.0 2.0 2 25
+ 1.609893 2 3 tcp 1040 ------- 3 2.0 3.0 5 33
+ 1.609893 2 3 tcp 1040 ------- 3 2.0 3.0 6 34
r 1.614133 2 1 ack 40 ------- 2 5.0 1.0 1 22
+ 1.614133 1 2 tcp 1040 ------- 2 1.0 5.0 3 35
- 1.614133 1 2 tcp 1040 ------- 2 1.0 5.0 3 35
+ 1.614133 1 2 tcp 1040 ------- 2 1.0 5.0 4 36
- 1.618293 1 2 tcp 1040 ------- 2 1.0 5.0 4 36
- 1.62376 2 3 tcp 1040 ------- 3 2.0 3.0 3 30
r 1.628293 1 2 tcp 1040 ------- 2 1.0 5.0 3 35
+ 1.628293 2 3 tcp 1040 ------- 2 1.0 5.0 3 35
r 1.63 3 4 tcp 1040 ------- 4 1.1 4.1 2 20
+ 1.63 4 3 ack 40 ------- 4 4.1 1.1 2 37
- 1.63 4 3 ack 40 ------- 4 4.1 1.1 2 37
r 1.631707 3 2 ack 40 ------- 2 5.0 1.0 2 24
+ 1.631707 2 1 ack 40 ------- 2 5.0 1.0 2 24
- 1.631707 2 1 ack 40 ------- 2 5.0 1.0 2 24
r 1.632453 1 2 tcp 1040 ------- 2 1.0 5.0 4 36
+ 1.632453 2 3 tcp 1040 ------- 2 1.0 5.0 4 36
r 1.641867 2 1 ack 40 ------- 2 5.0 1.0 2 24
+ 1.641867 1 2 tcp 1040 ------- 2 1.0 5.0 5 38
- 1.641867 1 2 tcp 1040 ------- 2 1.0 5.0 5 38
+ 1.641867 1 2 tcp 1040 ------- 2 1.0 5.0 6 39
r 1.642907 4 3 ack 40 ------- 4 4.1 1.1 1 32
+ 1.642907 3 2 ack 40 ------- 4 4.1 1.1 1 32
- 1.642907 3 2 ack 40 ------- 4 4.1 1.1 1 32
- 1.646027 1 2 tcp 1040 ------- 2 1.0 5.0 6 39
- 1.651493 2 3 tcp 1040 ------- 3 2.0 3.0 4 31
r 1.656027 1 2 tcp 1040 ------- 2 1.0 5.0 5 38
+ 1.656027 2 3 tcp 1040 ------- 2 1.0 5.0 5 38
r 1.660187 1 2 tcp 1040 ------- 2 1.0 5.0 6 39
+ 1.660187 2 3 tcp 1040 ------- 2 1.0 5.0 6 39
r 1.67064 4 3 ack 40 ------- 4 4.1 1.1 2 37
+ 1.67064 3 2 ack 40 ------- 4 4.1 1.1 2 37
- 1.67064 3 2 ack 40 ------- 4 4.1 1.1 2 37
- 1.679227 2 3 tcp 1040 ------- 1 0.0 4.0 5 28
- 1.70696 2 3 tcp 1040 ------- 1 0.0 4.0 6 29
- 1.734693 2 3 tcp 1040 ------- 3 2.0 3.0 5 33
- 1.762427 2 3 tcp 1040 ------- 3 2.0 3.0 6 34
- 1.79016 2 3 tcp 1040 ------- 2 1.0 5.0 3 35
r 1.796027 2 3 tcp 1040 ------- 1 0.0 4.0 3 26
+ 1.796027 3 4 tcp 1040 ------- 1 0.0 4.0 3 26
- 1.796027 3 4 tcp 1040 ------- 1 0.0 4.0 3 26
- 1.817893 2 3 tcp 1040 ------- 2 1.0 5.0 4 36
r 1.82376 2 3 tcp 1040 ------- 1 0.0 4.0 4 27
+ 1.82376 3 4 tcp 1040 ------- 1 0.0 4.0 4 27
- 1.82376 3 4 tcp 1040 ------- 1 0.0 4.0 4 27
r 1.843973 3 2 ack 40 ------- 4 4.1 1.1 1 32
+ 1.843973 2 1 ack 40 ------- 4 4.1 1.1 1 32
- 1.843973 2 1 ack 40 ------- 4 4.1 1.1 1 32
- 1.845627 2 3 tcp 1040 ------- 2 1.0 5.0 5 38
r 1.851493 2 3 tcp 1040 ------- 3 2.0 3.0 3 30
+ 1.851493 3 2 ack 40 ------- 3 3.0 2.0 3 40
- 1.851493 3 2 ack 40 ------- 3 3.0 2.0 3 40
r 1.852667 3 4 tcp 1040 ------- 1 0.0 4.0 3 26
+ 1.852667 4 3 ack 40 ------- 1 4.0 0.0 3 41
- 1.852667 4 3 ack 40 ------- 1 4.0 0.0 3 41
r 1.854133 2 1 ack 40 ------- 4 4.1 1.1 1 32
+ 1.854133 1 2 tcp 1040 ------- 4 1.1 4.1 3 42
- 1.854133 1 2 tcp 1040 ------- 4 1.1 4.1 3 42
+ 1.854133 1 2 tcp 1040 ------- 4 1.1 4.1 4 43
- 1.858293 1 2 tcp 1040 ------- 4 1.1 4.1 4 43
r 1.868293 1 2 tcp 1040 ------- 4 1.1 4.1 3 42
+ 1.868293 2 3 tcp 1040 ------- 4 1.1 4.1 3 42
r 1.871707 3 2 ack 40 ------- 4 4.1 1.1 2 37
+ 1.871707 2 1 ack 40 ------- 4 4.1 1.1 2 37
- 1.871707 2 1 ack 40 ------- 4 4.1 1.1 2 37
r 1.872453 1 2 tcp 1040 ------- 4 1.1 4.1 4 43
+ 1.872453 2 3 tcp 1040 ------- 4 1.1 4.1 4 43
- 1.87336 2 3 tcp 1040 ------- 2 1.0 5.0 6 39
r 1.879227 2 3 tcp 1040 ------- 3 2.0 3.0 4 31
+ 1.879227 3 2 ack 40 ------- 3 3.0 2.0 4 44
- 1.879227 3 2 ack 40 ------- 3 3.0 2.0 4 44
r 1.8804 3 4 tcp 1040 ------- 1 0.0 4.0 4 27
+ 1.8804 4 3 ack 40 ------- 1 4.0 0.0 4 45
- 1.8804 4 3 ack 40 ------- 1 4.0 0.0 4 45
r 1.881867 2 1 ack 40 ------- 4 4.1 1.1 2 37
+ 1.881867 1 2 tcp 1040 ------- 4 1.1 4.1 5 46
- 1.881867 1 2 tcp 1040 ------- 4 1.1 4.1 5 46
+ 1.881867 1 2 tcp 1040 ------- 4 1.1 4.1 6 47
- 1.886027 1 2 tcp 1040 ------- 4 1.1 4.1 6 47
r 1.893307 4 3 ack 40 ------- 1 4.0 0.0 3 41
+ 1.893307 3 2 ack 40 ------- 1 4.0 0.0 3 41
- 1.893307 3 2 ack 40 ------- 1 4.0 0.0 3 41
r 1.896027 1 2 tcp 1040 ------- 4 1.1 4.1 5 46
+ 1.896027 2 3 tcp 1040 ------- 4 1.1 4.1 5 46
r 1.900187 1 2 tcp 1040 ------- 4 1.1 4.1 6 47
+ 1.900187 2 3 tcp 1040 ------- 4 1.1 4.1 6 47
- 1.901093 2 3 tcp 1040 ------- 4 1.1 4.1 3 42
r 1.90696 2 3 tcp 1040 ------- 1 0.0 4.0 5 28
+ 1.90696 3 4 tcp 1040 ------- 1 0.0 4.0 5 28
- 1.90696 3 4 tcp 1040 ------- 1 0.0 4.0 5 28
r 1.92104 4 3 ack 40 ------- 1 4.0 0.0 4 45
+ 1.92104 3 2 ack 40 ------- 1 4.0 0.0 4 45
- 1.92104 3 2 ack 40 ------- 1 4.0 0.0 4 45
- 1.928827 2 3 tcp 1040 ------- 4 1.1 4.1 4 43
r 1.934693 2 3 tcp 1040 ------- 1 0.0 4.0 6 29
+ 1.934693 3 4 tcp 1040 ------- 1 0.0 4.0 6 29
- 1.934693 3 4 tcp 1040 ------- 1 0.0 4.0 6 29
- 1.95656 2 3 tcp 1040 ------- 4 1.1 4.1 5 46
r 1.962427 2 3 tcp 1040 ------- 3 2.0 3.0 5 33
+ 1.962427 3 2 ack 40 ------- 3 3.0 2.0 5 48
- 1.962427 3 2 ack 40 ------- 3 3.0 2.0 5 48
r 1.9636 3 4 tcp 1040 ------- 1 0.0 4.0 5 28
+ 1.9636 4 3 ack 40 ------- 1 4.0 0.0 5 49
- 1.9636 4 3 ack 40 ------- 1 4.0 0.0 5 49
- 1.984293 2 3 tcp 1040 ------- 4 1.1 4.1 6 47
r 1.99016 2 3 tcp 1040 ------- 3 2.0 3.0 6 34
+ 1.99016 3 2 ack 40 ------- 3 3.0 2.0 6 50
- 1.99016 3 2 ack 40 ------- 3 3.0 2.0 6 50
r 1.991333 3 4 tcp 1040 ------- 1 0.0 4.0 6 29
+ 1.991333 4 3 ack 40 ------- 1 4.0 0.0 6 51
- 1.991333 4 3 ack 40 ------- 1 4.0 0.0 6 51
r 2.00424 4 3 ack 40 ------- 1 4.0 0.0 5 49
+ 2.00424 3 2 ack 40 ------- 1 4.0 0.0 5 49
- 2.00424 3 2 ack 40 ------- 1 4.0 0.0 5 49
r 2.017893 2 3 tcp 1040 ------- 2 1.0 5.0 3 35
+ 2.017893 3 5 tcp 1040 ------- 2 1.0 5.0 3 35
- 2.017893 3 5 tcp 1040 ------- 2 1.0 5.0 3 35
r 2.031973 4 3 ack 40 ------- 1 4.0 0.0 6 51
+ 2.031973 3 2 ack 40 ------- 1 4.0 0.0 6 51
- 2.031973 3 2 ack 40 ------- 1 4.0 0.0 6 51
r 2.045627 2 3 tcp 1040 ------- 2 1.0 5.0 4 36
+ 2.045627 3 5 tcp 1040 ------- 2 1.0 5.0 4 36
- 2.045627 3 5 tcp 1040 ------- 2 1.0 5.0 4 36
r 2.05256 3 2 ack 40 ------- 3 3.0 2.0 3 40
+ 2.05256 2 3 tcp 1040 ------- 3 2.0 3.0 7 52
- 2.05256 2 3 tcp 1040 ------- 3 2.0 3.0 7 52
+ 2.05256 2 3 tcp 1040 ------- 3 2.0 3.0 8 53
r 2.064533 3 5 tcp 1040 ------- 2 1.0 5.0 3 35
+ 2.064533 5 3 ack 40 ------- 2 5.0 1.0 3 54
- 2.064533 5 3 ack 40 ------- 2 5.0 1.0 3 54
r 2.07336 2 3 tcp 1040 ------- 2 1.0 5.0 5 38
+ 2.07336 3 5 tcp 1040 ------- 2 1.0 5.0 5 38
- 2.07336 3 5 tcp 1040 ------- 2 1.0 5.0 5 38
r 2.080293 3 2 ack 40 ------- 3 3.0 2.0 4 44
+ 2.080293 2 3 tcp 1040 ------- 3 2.0 3.0 9 55
+ 2.080293 2 3 tcp 1040 ------- 3 2.0 3.0 10 56
- 2.080293 2 3 tcp 1040 ------- 3 2.0 3.0 8 53
r 2.092267 3 5 tcp 1040 ------- 2 1.0 5.0 4 36
+ 2.092267 5 3 ack 40 ------- 2 5.0 1.0 4 57
- 2.092267 5 3 ack 40 ------- 2 5.0 1.0 4 57
r 2.094373 3 2 ack 40 ------- 1 4.0 0.0 3 41
+ 2.094373 2 0 ack 40 ------- 1 4.0 0.0 3 41
- 2.094373 2 0 ack 40 ------- 1 4.0 0.0 3 41
r 2.095173 5 3 ack 40 ------- 2 5.0 1.0 3 54
+ 2.095173 3 2 ack 40 ------- 2 5.0 1.0 3 54
- 2.095173 3 2 ack 40 ------- 2 5.0 1.0 3 54
r 2.101093 2 3 tcp 1040 ------- 2 1.0 5.0 6 39
+ 2.101093 3 5 tcp 1040 ------- 2 1.0 5.0 6 39
- 2.101093 3 5 tcp 1040 ------- 2 1.0 5.0 6 39
r 2.104533 2 0 ack 40 ------- 1 4.0 0.0 3 41
+ 2.104533 0 2 tcp 1040 ------- 1 0.0 4.0 7 58
- 2.104533 0 2 tcp 1040 ------- 1 0.0 4.0 7 58
+ 2.104533 0 2 tcp 1040 ------- 1 0.0 4.0 8 59
- 2.108027 2 3 tcp 1040 ------- 3 2.0 3.0 9 55
- 2.108693 0 2 tcp 1040 ------- 1 0.0 4.0 8 59
r 2.118693 0 2 tcp 1040 ------- 1 0.0 4.0 7 58
+ 2.118693 2 3 tcp 1040 ------- 1 0.0 4.0 7 58
r 2.12 3 5 tcp 1040 ------- 2 1.0 5.0 5 38
+ 2.12 5 3 ack 40 ------- 2 5.0 1.0 5 60
- 2.12 5 3 ack 40 ------- 2 5.0 1.0 5 60
r 2.122107 3 2 ack 40 ------- 1 4.0 0.0 4 45
+ 2.122107 2 0 ack 40 ------- 1 4.0 0.0 4 45
- 2.122107 2 0 ack 40 ------- 1 4.0 0.0 4 45
r 2.122853 0 2 tcp 1040 ------- 1 0.0 4.0 8 59
+ 2.122853 2 3 tcp 1040 ------- 1 0.0 4.0 8 59
r 2.122907 5 3 ack 40 ------- 2 5.0 1.0 4 57
+ 2.122907 3 2 ack 40 ------- 2 5.0 1.0 4 57
- 2.122907 3 2 ack 40 ------- 2 5.0 1.0 4 57
r 2.128827 2 3 tcp 1040 ------- 4 1.1 4.1 3 42
+ 2.128827 3 4 tcp 1040 ------- 4 1.1 4.1 3 42
- 2.128827 3 4 tcp 1040 ------- 4 1.1 4.1 3 42
r 2.132267 2 0 ack 40 ------- 1 4.0 0.0 4 45
+ 2.132267 0 2 tcp 1040 ------- 1 0.0 4.0 9 61
- 2.132267 0 2 tcp 1040 ------- 1 0.0 4.0 9 61
+ 2.132267 0 2 tcp 1040 ------- 1 0.0 4.0 10 62
- 2.13576 2 3 tcp 1040 ------- 3 2.0 3.0 10 56
- 2.136427 0 2 tcp 1040 ------- 1 0.0 4.0 10 62
r 2.146427 0 2 tcp 1040 ------- 1 0.0 4.0 9 61
+ 2.146427 2 3 tcp 1040 ------- 1 0.0 4.0 9 61
r 2.147733 3 5 tcp 1040 ------- 2 1.0 5.0 6 39
+ 2.147733 5 3 ack 40 ------- 2 5.0 1.0 6 63
- 2.147733 5 3 ack 40 ------- 2 5.0 1.0 6 63
r 2.150587 0 2 tcp 1040 ------- 1 0.0 4.0 10 62
+ 2.150587 2 3 tcp 1040 ------- 1 0.0 4.0 10 62
r 2.15064 5 3 ack 40 ------- 2 5.0 1.0 5 60
+ 2.15064 3 2 ack 40 ------- 2 5.0 1.0 5 60
- 2.15064 3 2 ack 40 ------- 2 5.0 1.0 5 60
r 2.15656 2 3 tcp 1040 ------- 4 1.1 4.1 4 43
+ 2.15656 3 4 tcp 1040 ------- 4 1.1 4.1 4 43
- 2.15656 3 4 tcp 1040 ------- 4 1.1 4.1 4 43
r 2.163493 3 2 ack 40 ------- 3 3.0 2.0 5 48
+ 2.163493 2 3 tcp 1040 ------- 3 2.0 3.0 11 64
+ 2.163493 2 3 tcp 1040 ------- 3 2.0 3.0 12 65
- 2.163493 2 3 tcp 1040 ------- 1 0.0 4.0 7 58
r 2.178373 5 3 ack 40 ------- 2 5.0 1.0 6 63
+ 2.178373 3 2 ack 40 ------- 2 5.0 1.0 6 63
- 2.178373 3 2 ack 40 ------- 2 5.0 1.0 6 63
r 2.184293 2 3 tcp 1040 ------- 4 1.1 4.1 5 46
+ 2.184293 3 4 tcp 1040 ------- 4 1.1 4.1 5 46
- 2.184293 3 4 tcp 1040 ------- 4 1.1 4.1 5 46
r 2.185467 3 4 tcp 1040 ------- 4 1.1 4.1 3 42
+ 2.185467 4 3 ack 40 ------- 4 4.1 1.1 3 66
- 2.185467 4 3 ack 40 ------- 4 4.1 1.1 3 66
r 2.191227 3 2 ack 40 ------- 3 3.0 2.0 6 50
+ 2.191227 2 3 tcp 1040 ------- 3 2.0 3.0 13 67
+ 2.191227 2 3 tcp 1040 ------- 3 2.0 3.0 14 68
- 2.191227 2 3 tcp 1040 ------- 1 0.0 4.0 8 59
r 2.205307 3 2 ack 40 ------- 1 4.0 0.0 5 49
+ 2.205307 2 0 ack 40 ------- 1 4.0 0.0 5 49
- 2.205307 2 0 ack 40 ------- 1 4.0 0.0 5 49
r 2.212027 2 3 tcp 1040 ------- 4 1.1 4.1 6 47
+ 2.212027 3 4 tcp 1040 ------- 4 1.1 4.1 6 47
- 2.212027 3 4 tcp 1040 ------- 4 1.1 4.1 6 47
r 2.2132 3 4 tcp 1040 ------- 4 1.1 4.1 4 43
+ 2.2132 4 3 ack 40 ------- 4 4.1 1.1 4 69
- 2.2132 4 3 ack 40 ------- 4 4.1 1.1 4 69
r 2.215467 2 0 ack 40 ------- 1 4.0 0.0 5 49
+ 2.215467 0 2 tcp 1040 ------- 1 0.0 4.0 11 70
- 2.215467 0 2 tcp 1040 ------- 1 0.0 4.0 11 70
+ 2.215467 0 2 tcp 1040 ------- 1 0.0 4.0 12 71
- 2.21896 2 3 tcp 1040 ------- 1 0.0 4.0 9 61
- 2.219627 0 2 tcp 1040 ------- 1 0.0 4.0 12 71
r 2.226107 4 3 ack 40 ------- 4 4.1 1.1 3 66
+ 2.226107 3 2 ack 40 ------- 4 4.1 1.1 3 66
- 2.226107 3 2 ack 40 ------- 4 4.1 1.1 3 66
r 2.229627 0 2 tcp 1040 ------- 1 0.0 4.0 11 70
+ 2.229627 2 3 tcp 1040 ------- 1 0.0 4.0 11 70
r 2.23304 3 2 ack 40 ------- 1 4.0 0.0 6 51
+ 2.23304 2 0 ack 40 ------- 1 4.0 0.0 6 51
- 2.23304 2 0 ack 40 ------- 1 4.0 0.0 6 51
r 2.233787 0 2 tcp 1040 ------- 1 0.0 4.0 12 71
+ 2.233787 2 3 tcp 1040 ------- 1 0.0 4.0 12 71
r 2.240933 3 4 tcp 1040 ------- 4 1.1 4.1 5 46
+ 2.240933 4 3 ack 40 ------- 4 4.1 1.1 5 72
- 2.240933 4 3 ack 40 ------- 4 4.1 1.1 5 72
r 2.2432 2 0 ack 40 ------- 1 4.0 0.0 6 51
+ 2.2432 0 2 tcp 1040 ------- 1 0.0 4.0 13 73
- 2.2432 0 2 tcp 1040 ------- 1 0.0 4.0 13 73
+ 2.2432 0 2 tcp 1040 ------- 1 0.0 4.0 14 74
- 2.246693 2 3 tcp 1040 ------- 1 0.0 4.0 10 62
- 2.24736 0 2 tcp 1040 ------- 1 0.0 4.0 14 74
r 2.25384 4 3 ack 40 ------- 4 4.1 1.1 4 69
+ 2.25384 3 2 ack 40 ------- 4 4.1 1.1 4 69
- 2.25384 3 2 ack 40 ------- 4 4.1 1.1 4 69
r 2.25736 0 2 tcp 1040 ------- 1 0.0 4.0 13 73
+ 2.25736 2 3 tcp 1040 ------- 1 0.0 4.0 13 73
r 2.26152 0 2 tcp 1040 ------- 1 0.0 4.0 14 74
+ 2.26152 2 3 tcp 1040 ------- 1 0.0 4.0 14 74
r 2.268667 3 4 tcp 1040 ------- 4 1.1 4.1 6 47
+ 2.268667 4 3 ack 40 ------- 4 4.1 1.1 6 75
- 2.268667 4 3 ack 40 ------- 4 4.1 1.1 6 75
- 2.274427 2 3 tcp 1040 ------- 3 2.0 3.0 11 64
r 2.280293 2 3 tcp 1040 ------- 3 2.0 3.0 7 52
+ 2.280293 3 2 ack 40 ------- 3 3.0 2.0 7 76
- 2.280293 3 2 ack 40 ------- 3 3.0 2.0 7 76
r 2.281573 4 3 ack 40 ------- 4 4.1 1.1 5 72
+ 2.281573 3 2 ack 40 ------- 4 4.1 1.1 5 72
- 2.281573 3 2 ack 40 ------- 4 4.1 1.1 5 72
r 2.29624 3 2 ack 40 ------- 2 5.0 1.0 3 54
+ 2.29624 2 1 ack 40 ------- 2 5.0 1.0 3 54
- 2.29624 2 1 ack 40 ------- 2 5.0 1.0 3 54
- 2.30216 2 3 tcp 1040 ------- 3 2.0 3.0 12 65
r 2.3064 2 1 ack 40 ------- 2 5.0 1.0 3 54
+ 2.3064 1 2 tcp 1040 ------- 2 1.0 5.0 7 77
- 2.3064 1 2 tcp 1040 ------- 2 1.0 5.0 7 77
+ 2.3064 1 2 tcp 1040 ------- 2 1.0 5.0 8 78
r 2.308027 2 3 tcp 1040 ------- 3 2.0 3.0 8 53
+ 2.308027 3 2 ack 40 ------- 3 3.0 2.0 8 79
- 2.308027 3 2 ack 40 ------- 3 3.0 2.0 8 79
r 2.309307 4 3 ack 40 ------- 4 4.1 1.1 6 75
+ 2.309307 3 2 ack 40 ------- 4 4.1 1.1 6 75
- 2.309307 3 2 ack 40 ------- 4 4.1 1.1 6 75
- 2.31056 1 2 tcp 1040 ------- 2 1.0 5.0 8 78
r 2.32056 1 2 tcp 1040 ------- 2 1.0 5.0 7 77
+ 2.32056 2 3 tcp 1040 ------- 2 1.0 5.0 7 77
r 2.323973 3 2 ack 40 ------- 2 5.0 1.0 4 57
+ 2.323973 2 1 ack 40 ------- 2 5.0 1.0 4 57
- 2.323973 2 1 ack 40 ------- 2 5.0 1.0 4 57
r 2.32472 1 2 tcp 1040 ------- 2 1.0 5.0 8 78
+ 2.32472 2 3 tcp 1040 ------- 2 1.0 5.0 8 78
- 2.329893 2 3 tcp 1040 ------- 3 2.0 3.0 13 67
r 2.334133 2 1 ack 40 ------- 2 5.0 1.0 4 57
+ 2.334133 1 2 tcp 1040 ------- 2 1.0 5.0 9 80
- 2.334133 1 2 tcp 1040 ------- 2 1.0 5.0 9 80
+ 2.334133 1 2 tcp 1040 ------- 2 1.0 5.0 10 81
r 2.33576 2 3 tcp 1040 ------- 3 2.0 3.0 9 55
+ 2.33576 3 2 ack 40 ------- 3 3.0 2.0 9 82
- 2.33576 3 2 ack 40 ------- 3 3.0 2.0 9 82
- 2.338293 1 2 tcp 1040 ------- 2 1.0 5.0 10 81
r 2.348293 1 2 tcp 1040 ------- 2 1.0 5.0 9 80
+ 2.348293 2 3 tcp 1040 ------- 2 1.0 5.0 9 80
r 2.351707 3 2 ack 40 ------- 2 5.0 1.0 5 60
+ 2.351707 2 1 ack 40 ------- 2 5.0 1.0 5 60
- 2.351707 2 1 ack 40 ------- 2 5.0 1.0 5 60
r 2.352453 1 2 tcp 1040 ------- 2 1.0 5.0 10 81
+ 2.352453 2 3 tcp 1040 ------- 2 1.0 5.0 10 81
- 2.357627 2 3 tcp 1040 ------- 3 2.0 3.0 14 68
r 2.361867 2 1 ack 40 ------- 2 5.0 1.0 5 60
+ 2.361867 1 2 tcp 1040 ------- 2 1.0 5.0 11 83
- 2.361867 1 2 tcp 1040 ------- 2 1.0 5.0 11 83
+ 2.361867 1 2 tcp 1040 ------- 2 1.0 5.0 12 84
r 2.363493 2 3 tcp 1040 ------- 3 2.0 3.0 10 56
+ 2.363493 3 2 ack 40 ------- 3 3.0 2.0 10 85
- 2.363493 3 2 ack 40 ------- 3 3.0 2.0 10 85
- 2.366027 1 2 tcp 1040 ------- 2 1.0 5.0 12 84
r 2.376027 1 2 tcp 1040 ------- 2 1.0 5.0 11 83
+ 2.376027 2 3 tcp 1040 ------- 2 1.0 5.0 11 83
r 2.37944 3 2 ack 40 ------- 2 5.0 1.0 6 63
+ 2.37944 2 1 ack 40 ------- 2 5.0 1.0 6 63
- 2.37944 2 1 ack 40 ------- 2 5.0 1.0 6 63
r 2.380187 1 2 tcp 1040 ------- 2 1.0 5.0 12 84
+ 2.380187 2 3 tcp 1040 ------- 2 1.0 5.0 12 84
- 2.38536 2 3 tcp 1040 ------- 1 0.0 4.0 11 70
r 2.3896 2 1 ack 40 ------- 2 5.0 1.0 6 63
+ 2.3896 1 2 tcp 1040 ------- 2 1.0 5.0 13 86
- 2.3896 1 2 tcp 1040 ------- 2 1.0 5.0 13 86
+ 2.3896 1 2 tcp 1040 ------- 2 1.0 5.0 14 87
r 2.391227 2 3 tcp 1040 ------- 1 0.0 4.0 7 58
+ 2.391227 3 4 tcp 1040 ------- 1 0.0 4.0 7 58
- 2.391227 3 4 tcp 1040 ------- 1 0.0 4.0 7 58
- 2.39376 1 2 tcp 1040 ------- 2 1.0 5.0 14 87
r 2.40376 1 2 tcp 1040 ------- 2 1.0 5.0 13 86
+ 2.40376 2 3 tcp 1040 ------- 2 1.0 5.0 13 86
r 2.40792 1 2 tcp 1040 ------- 2 1.0 5.0 14 87
+ 2.40792 2 3 tcp 1040 ------- 2 1.0 5.0 14 87
- 2.413093 2 3 tcp 1040 ------- 1 0.0 4.0 12 71
r 2.41896 2 3 tcp 1040 ------- 1 0.0 4.0 8 59
+ 2.41896 3 4 tcp 1040 ------- 1 0.0 4.0 8 59
- 2.41896 3 4 tcp 1040 ------- 1 0.0 4.0 8 59
r 2.427173 3 2 ack 40 ------- 4 4.1 1.1 3 66
+ 2.427173 2 1 ack 40 ------- 4 4.1 1.1 3 66
- 2.427173 2 1 ack 40 ------- 4 4.1 1.1 3 66
r 2.437333 2 1 ack 40 ------- 4 4.1 1.1 3 66
+ 2.437333 1 2 tcp 1040 ------- 4 1.1 4.1 7 88
- 2.437333 1 2 tcp 1040 ------- 4 1.1 4.1 7 88
+ 2.437333 1 2 tcp 1040 ------- 4 1.1 4.1 8 89
- 2.440827 2 3 tcp 1040 ------- 1 0.0 4.0 13 73
- 2.441493 1 2 tcp 1040 ------- 4 1.1 4.1 8 89
r 2.446693 2 3 tcp 1040 ------- 1 0.0 4.0 9 61
+ 2.446693 3 4 tcp 1040 ------- 1 0.0 4.0 9 61
- 2.446693 3 4 tcp 1040 ------- 1 0.0 4.0 9 61
r 2.447867 3 4 tcp 1040 ------- 1 0.0 4.0 7 58
+ 2.447867 4 3 ack 40 ------- 1 4.0 0.0 7 90
- 2.447867 4 3 ack 40 ------- 1 4.0 0.0 7 90
r 2.451493 1 2 tcp 1040 ------- 4 1.1 4.1 7 88
+ 2.451493 2 3 tcp 1040 ------- 4 1.1 4.1 7 88
r 2.454907 3 2 ack 40 ------- 4 4.1 1.1 4 69
+ 2.454907 2 1 ack 40 ------- 4 4.1 1.1 4 69
- 2.454907 2 1 ack 40 ------- 4 4.1 1.1 4 69
r 2.455653 1 2 tcp 1040 ------- 4 1.1 4.1 8 89
+ 2.455653 2 3 tcp 1040 ------- 4 1.1 4.1 8 89
r 2.465067 2 1 ack 40 ------- 4 4.1 1.1 4 69
+ 2.465067 1 2 tcp 1040 ------- 4 1.1 4.1 9 91
- 2.465067 1 2 tcp 1040 ------- 4 1.1 4.1 9 91
+ 2.465067 1 2 tcp 1040 ------- 4 1.1 4.1 10 92
- 2.46856 2 3 tcp 1040 ------- 1 0.0 4.0 14 74
- 2.469227 1 2 tcp 1040 ------- 4 1.1 4.1 10 92
r 2.474427 2 3 tcp 1040 ------- 1 0.0 4.0 10 62
+ 2.474427 3 4 tcp 1040 ------- 1 0.0 4.0 10 62
- 2.474427 3 4 tcp 1040 ------- 1 0.0 4.0 10 62
r 2.4756 3 4 tcp 1040 ------- 1 0.0 4.0 8 59
+ 2.4756 4 3 ack 40 ------- 1 4.0 0.0 8 93
- 2.4756 4 3 ack 40 ------- 1 4.0 0.0 8 93
r 2.479227 1 2 tcp 1040 ------- 4 1.1 4.1 9 91
+ 2.479227 2 3 tcp 1040 ------- 4 1.1 4.1 9 91
r 2.48136 3 2 ack 40 ------- 3 3.0 2.0 7 76
+ 2.48136 2 3 tcp 1040 ------- 3 2.0 3.0 15 94
+ 2.48136 2 3 tcp 1040 ------- 3 2.0 3.0 16 95
r 2.48264 3 2 ack 40 ------- 4 4.1 1.1 5 72
+ 2.48264 2 1 ack 40 ------- 4 4.1 1.1 5 72
- 2.48264 2 1 ack 40 ------- 4 4.1 1.1 5 72
r 2.483387 1 2 tcp 1040 ------- 4 1.1 4.1 10 92
+ 2.483387 2 3 tcp 1040 ------- 4 1.1 4.1 10 92
r 2.488507 4 3 ack 40 ------- 1 4.0 0.0 7 90
+ 2.488507 3 2 ack 40 ------- 1 4.0 0.0 7 90
- 2.488507 3 2 ack 40 ------- 1 4.0 0.0 7 90
r 2.4928 2 1 ack 40 ------- 4 4.1 1.1 5 72
+ 2.4928 1 2 tcp 1040 ------- 4 1.1 4.1 11 96
- 2.4928 1 2 tcp 1040 ------- 4 1.1 4.1 11 96
+ 2.4928 1 2 tcp 1040 ------- 4 1.1 4.1 12 97
- 2.496293 2 3 tcp 1040 ------- 2 1.0 5.0 7 77
- 2.49696 1 2 tcp 1040 ------- 4 1.1 4.1 12 97
r 2.50216 2 3 tcp 1040 ------- 3 2.0 3.0 11 64
+ 2.50216 3 2 ack 40 ------- 3 3.0 2.0 11 98
- 2.50216 3 2 ack 40 ------- 3 3.0 2.0 11 98
r 2.503333 3 4 tcp 1040 ------- 1 0.0 4.0 9 61
+ 2.503333 4 3 ack 40 ------- 1 4.0 0.0 9 99
- 2.503333 4 3 ack 40 ------- 1 4.0 0.0 9 99
r 2.50696 1 2 tcp 1040 ------- 4 1.1 4.1 11 96
+ 2.50696 2 3 tcp 1040 ------- 4 1.1 4.1 11 96
r 2.509093 3 2 ack 40 ------- 3 3.0 2.0 8 79
+ 2.509093 2 3 tcp 1040 ------- 3 2.0 3.0 17 100
+ 2.509093 2 3 tcp 1040 ------- 3 2.0 3.0 18 101
r 2.510373 3 2 ack 40 ------- 4 4.1 1.1 6 75
+ 2.510373 2 1 ack 40 ------- 4 4.1 1.1 6 75
- 2.510373 2 1 ack 40 ------- 4 4.1 1.1 6 75
r 2.51112 1 2 tcp 1040 ------- 4 1.1 4.1 12 97
+ 2.51112 2 3 tcp 1040 ------- 4 1.1 4.1 12 97
r 2.51624 4 3 ack 40 ------- 1 4.0 0.0 8 93
+ 2.51624 3 2 ack 40 ------- 1 4.0 0.0 8 93
- 2.51624 3 2 ack 40 ------- 1 4.0 0.0 8 93
r 2.520533 2 1 ack 40 ------- 4 4.1 1.1 6 75
+ 2.520533 1 2 tcp 1040 ------- 4 1.1 4.1 13 102
- 2.520533 1 2 tcp 1040 ------- 4 1.1 4.1 13 102
+ 2.520533 1 2 tcp 1040 ------- 4 1.1 4.1 14 103
- 2.524027 2 3 tcp 1040 ------- 2 1.0 5.0 8 78
- 2.524693 1 2 tcp 1040 ------- 4 1.1 4.1 14 103
r 2.529893 2 3 tcp 1040 ------- 3 2.0 3.0 12 65
+ 2.529893 3 2 ack 40 ------- 3 3.0 2.0 12 104
- 2.529893 3 2 ack 40 ------- 3 3.0 2.0 12 104
r 2.531067 3 4 tcp 1040 ------- 1 0.0 4.0 10 62
+ 2.531067 4 3 ack 40 ------- 1 4.0 0.0 10 105
- 2.531067 4 3 ack 40 ------- 1 4.0 0.0 10 105
r 2.534693 1 2 tcp 1040 ------- 4 1.1 4.1 13 102
+ 2.534693 2 3 tcp 1040 ------- 4 1.1 4.1 13 102
r 2.536827 3 2 ack 40 ------- 3 3.0 2.0 9 82
+ 2.536827 2 3 tcp 1040 ------- 3 2.0 3.0 19 106
+ 2.536827 2 3 tcp 1040 ------- 3 2.0 3.0 20 107
r 2.538853 1 2 tcp 1040 ------- 4 1.1 4.1 14 103
+ 2.538853 2 3 tcp 1040 ------- 4 1.1 4.1 14 103
r 2.543973 4 3 ack 40 ------- 1 4.0 0.0 9 99
+ 2.543973 3 2 ack 40 ------- 1 4.0 0.0 9 99
- 2.543973 3 2 ack 40 ------- 1 4.0 0.0 9 99
- 2.55176 2 3 tcp 1040 ------- 2 1.0 5.0 9 80
r 2.557627 2 3 tcp 1040 ------- 3 2.0 3.0 13 67
+ 2.557627 3 2 ack 40 ------- 3 3.0 2.0 13 108
- 2.557627 3 2 ack 40 ------- 3 3.0 2.0 13 108
r 2.56456 3 2 ack 40 ------- 3 3.0 2.0 10 85
+ 2.56456 2 3 tcp 1040 ------- 3 2.0 3.0 21 109
+ 2.56456 2 3 tcp 1040 ------- 3 2.0 3.0 22 110
r 2.571707 4 3 ack 40 ------- 1 4.0 0.0 10 105
+ 2.571707 3 2 ack 40 ------- 1 4.0 0.0 10 105
- 2.571707 3 2 ack 40 ------- 1 4.0 0.0 10 105
- 2.579493 2 3 tcp 1040 ------- 2 1.0 5.0 10 81
r 2.58536 2 3 tcp 1040 ------- 3 2.0 3.0 14 68
+ 2.58536 3 2 ack 40 ------- 3 3.0 2.0 14 111
- 2.58536 3 2 ack 40 ------- 3 3.0 2.0 14 111
- 2.607227 2 3 tcp 1040 ------- 2 1.0 5.0 11 83
r 2.613093 2 3 tcp 1040 ------- 1 0.0 4.0 11 70
+ 2.613093 3 4 tcp 1040 ------- 1 0.0 4.0 11 70